3
Energy (cycle    0):          2.22516 eV
     O         -2.19000          4.53600        -11.66700
     H         -2.60900          4.48400        -12.57400
     H         -2.53400          5.43500        -11.35600
3
Energy (cycle    1):          1.09996 eV
     O         -2.18554          4.53354        -11.66691
     H         -2.62906          4.49011        -12.61642
     H         -2.52848          5.44954        -11.34710
3
Energy (cycle    2):         -0.06134 eV
     O         -2.17944          4.52889        -11.66592
     H         -2.66163          4.49636        -12.68411
     H         -2.53662          5.49882        -11.32740
3
Energy (cycle    3):         -0.23224 eV
     O         -2.17279          4.52324        -11.66489
     H         -2.69685          4.50358        -12.75614
     H         -2.55077          5.56286        -11.30372
3
Energy (cycle    4):          0.22548 eV
     O         -2.16627          4.51757        -11.66418
     H         -2.72969          4.51184        -12.82216
     H         -2.56518          5.62628        -11.28123
3
Energy (cycle    5):          0.83831 eV
     O         -2.16019          4.51236        -11.66386
     H         -2.75813          4.52095        -12.87828
     H         -2.57709          5.68162        -11.26237
3
Energy (cycle    6):          1.38441 eV
     O         -2.15465          4.50778        -11.66394
     H         -2.78155          4.53066        -12.92348
     H         -2.58547          5.72611        -11.24794
3
Energy (cycle    7):          1.79767 eV
     O         -2.14967          4.50392        -11.66442
     H         -2.79988          4.54080        -12.95780
     H         -2.59005          5.75896        -11.23814
3
Energy (cycle    8):          2.07096 eV
     O         -2.14524          4.50077        -11.66528
     H         -2.81322          4.55124        -12.98158
     H         -2.59083          5.78010        -11.23292
3
Energy (cycle    9):          2.21005 eV
     O         -2.14135          4.49835        -11.66649
     H         -2.82168          4.56192        -12.99510
     H         -2.58786          5.78957        -11.23230
3
Energy (cycle   10):          2.21819 eV
     O         -2.13800          4.49665        -11.66804
     H         -2.82534          4.57284        -12.99851
     H         -2.58120          5.78732        -11.23637
3
Energy (cycle   11):          2.09764 eV
     O         -2.13518          4.49568        -11.66993
     H         -2.82424          4.58388        -12.99204
     H         -2.57084          5.77330        -11.24509
3
Energy (cycle   12):          1.84533 eV
     O         -2.13290          4.49546        -11.67214
     H         -2.81836          4.59490        -12.97580
     H         -2.55673          5.74735        -11.25842
3
Energy (cycle   13):          1.45531 eV
     O         -2.13116          4.49602        -11.67467
     H         -2.80764          4.60581        -12.94974
     H         -2.53884          5.70923        -11.27645
3
Energy (cycle   14):          0.93979 eV
     O         -2.12997          4.49735        -11.67753
     H         -2.79196          4.61660        -12.91365
     H         -2.51723          5.65896        -11.29923
3
Energy (cycle   15):          0.37938 eV
     O         -2.12930          4.49938        -11.68076
     H         -2.77123          4.62724        -12.86735
     H         -2.49240          5.59771        -11.32649
3
Energy (cycle   16):          0.01433 eV
     O         -2.12906          4.50183        -11.68442
     H         -2.74546          4.63779        -12.81082
     H         -2.46594          5.52991        -11.35695
3
Energy (cycle   17):          0.20481 eV
     O         -2.12895          4.50396        -11.68871
     H         -2.71502          4.64838        -12.74469
     H         -2.44180          5.46723        -11.38710
3
Energy (cycle   18):          0.74763 eV
     O         -2.12845          4.50435        -11.69389
     H         -2.68132          4.65949        -12.67140
     H         -2.42726          5.43164        -11.41040
3
Energy (cycle   19):          0.89890 eV
     O         -2.12687          4.50170        -11.69978
     H         -2.64896          4.67254        -12.59899
     H         -2.42855          5.44229        -11.42147
3
Energy (cycle   20):          1.10295 eV
     O         -2.12363          4.49631        -11.70490
     H         -2.62990          4.69178        -12.54774
     H         -2.44280          5.49016        -11.42359
3
Energy (cycle   21):          0.64741 eV
     O         -2.11823          4.48925        -11.70720
     H         -2.63989          4.72429        -12.54292
     H         -2.46240          5.55142        -11.42405
3
Energy (cycle   22):         -0.23733 eV
     O         -2.11106          4.48136        -11.70671
     H         -2.67723          4.77126        -12.57994
     H         -2.48262          5.61135        -11.42699
3
Energy (cycle   23):         -0.32622 eV
     O         -2.10330          4.47345        -11.70503
     H         -2.72544          4.82595        -12.63181
     H         -2.50148          5.66388        -11.43391
3
Energy (cycle   24):          0.12948 eV
     O         -2.09573          4.46606        -11.70327
     H         -2.77282          4.88227        -12.68053
     H         -2.51810          5.70644        -11.44530
3
Energy (cycle   25):          0.66483 eV
     O         -2.08867          4.45946        -11.70184
     H         -2.81463          4.93729        -12.71934
     H         -2.53208          5.73779        -11.46133
3
Energy (cycle   26):          1.08379 eV
     O         -2.08223          4.45376        -11.70083
     H         -2.84961          4.99003        -12.74665
     H         -2.54318          5.75727        -11.48207
3
Energy (cycle   27):          1.33665 eV
     O         -2.07640          4.44898        -11.70024
     H         -2.87778          5.04033        -12.76267
     H         -2.55131          5.76447        -11.50756
3
Energy (cycle   28):          1.41884 eV
     O         -2.07118          4.44514        -11.70002
     H         -2.89950          5.08838        -12.76801
     H         -2.55639          5.75900        -11.53789
3
Energy (cycle   29):          1.33317 eV
     O         -2.06652          4.44225        -11.70012
     H         -2.91519          5.13447        -12.76327
     H         -2.55837          5.74045        -11.57318
3
Energy (cycle   30):          1.08166 eV
     O         -2.06243          4.44032        -11.70051
     H         -2.92516          5.17891        -12.74889
     H         -2.55718          5.70836        -11.61358
3
Energy (cycle   31):          0.67337 eV
     O         -2.05888          4.43934        -11.70115
     H         -2.92964          5.22193        -12.72514
     H         -2.55283          5.66244        -11.65921
3
Energy (cycle   32):          0.15058 eV
     O         -2.05586          4.43930        -11.70205
     H         -2.92872          5.26362        -12.69224
     H         -2.54555          5.60305        -11.71005
3
Energy (cycle   33):         -0.36084 eV
     O         -2.05331          4.44007        -11.70319
     H         -2.92242          5.30383        -12.65041
     H         -2.53618          5.53228        -11.76587
3
Energy (cycle   34):         -0.62118 eV
     O         -2.05108          4.44131        -11.70458
     H         -2.91074          5.34206        -12.60018
     H         -2.52707          5.45604        -11.82630
3
Energy (cycle   35):         -0.47605 eV
     O         -2.04884          4.44231        -11.70612
     H         -2.89388          5.37746        -12.54266
     H         -2.52327          5.38643        -11.89151
3
Energy (cycle   36):         -0.28253 eV
     O         -2.04610          4.44212        -11.70759
     H         -2.87258          5.40915        -12.47995
     H         -2.53192          5.33947        -11.96300
3
Energy (cycle   37):         -0.27741 eV
     O         -2.04256          4.44031        -11.70874
     H         -2.84896          5.43688        -12.41580
     H         -2.55546          5.32209        -12.04107
3
Energy (cycle   38):          0.16892 eV
     O         -2.03850          4.43748        -11.70960
     H         -2.82779          5.46236        -12.35631
     H         -2.58485          5.32311        -12.11900
3
Energy (cycle   39):          0.86593 eV
     O         -2.03439          4.43449        -11.71044
     H         -2.81757          5.49120        -12.30815
     H         -2.60416          5.32343        -12.18596
3
Energy (cycle   40):          0.64733 eV
     O         -2.03051          4.43180        -11.71145
     H         -2.82627          5.53262        -12.27003
     H         -2.60091          5.30638        -12.24013
3
Energy (cycle   41):         -0.20428 eV
     O         -2.02690          4.42950        -11.71267
     H         -2.85133          5.58901        -12.23189
     H         -2.57686          5.26814        -12.29109
3
Energy (cycle   42):         -0.66650 eV
     O         -2.02348          4.42744        -11.71399
     H         -2.88351          5.65291        -12.18936
     H         -2.54288          5.21848        -12.34488
3
Energy (cycle   43):         -0.60136 eV
     O         -2.02007          4.42540        -11.71521
     H         -2.91584          5.71658        -12.14393
     H         -2.50844          5.16887        -12.40308
3
Energy (cycle   44):         -0.31183 eV
     O         -2.01657          4.42321        -11.71616
     H         -2.94494          5.77568        -12.09796
     H         -2.47869          5.12622        -12.46603
3
Energy (cycle   45):          0.01919 eV
     O         -2.01299          4.42088        -11.71684
     H         -2.96962          5.82850        -12.05310
     H         -2.45465          5.09195        -12.53236
3
Energy (cycle   46):          0.37057 eV
     O         -2.00943          4.41858        -11.71738
     H         -2.98971          5.87470        -12.01031
     H         -2.43488          5.06392        -12.59861
3
Energy (cycle   47):          0.73852 eV
     O         -2.00601          4.41649        -11.71804
     H         -3.00546          5.91451        -11.97003
     H         -2.41727          5.03899        -12.66055
3
Energy (cycle   48):          1.08860 eV
     O         -2.00281          4.41474        -11.71903
     H         -3.01722          5.94836        -11.93238
     H         -2.40008          5.01466        -12.71463
3
Energy (cycle   49):          1.38103 eV
     O         -1.99989          4.41339        -11.72051
     H         -3.02535          5.97672        -11.89731
     H         -2.38221          4.98929        -12.75844
3
Energy (cycle   50):          1.59048 eV
     O         -1.99725          4.41249        -11.72256
     H         -3.03017          6.00002        -11.86467
     H         -2.36302          4.96199        -12.79063
3
Energy (cycle   51):          1.70869 eV
     O         -1.99491          4.41202        -11.72524
     H         -3.03195          6.01861        -11.83427
     H         -2.34224          4.93240        -12.81067
3
Energy (cycle   52):          1.74300 eV
     O         -1.99285          4.41198        -11.72855
     H         -3.03091          6.03278        -11.80592
     H         -2.31984          4.90050        -12.81868
3
Energy (cycle   53):          1.71872 eV
     O         -1.99104          4.41233        -11.73244
     H         -3.02720          6.04276        -11.77941
     H         -2.29606          4.86668        -12.81557
3
Energy (cycle   54):          1.68511 eV
     O         -1.98944          4.41300        -11.73679
     H         -3.02097          6.04872        -11.75460
     H         -2.27147          4.83180        -12.80345
3
Energy (cycle   55):          1.71083 eV
     O         -1.98798          4.41388        -11.74136
     H         -3.01229          6.05076        -11.73134
     H         -2.24709          4.79738        -12.78626
3
Energy (cycle   56):          1.83563 eV
     O         -1.98657          4.41483        -11.74576
     H         -3.00124          6.04895        -11.70954
     H         -2.22445          4.76571        -12.77047
3
Energy (cycle   57):          1.98185 eV
     O         -1.98507          4.41569        -11.74945
     H         -2.98783          6.04332        -11.68911
     H         -2.20536          4.73943        -12.76441
3
Energy (cycle   58):          1.99120 eV
     O         -1.98343          4.41633        -11.75202
     H         -2.97208          6.03385        -11.67002
     H         -2.19102          4.72032        -12.77484
3
Energy (cycle   59):          1.85605 eV
     O         -1.98165          4.41679        -11.75344
     H         -2.95399          6.02051        -11.65224
     H         -2.18121          4.70803        -12.80224
3
Energy (cycle   60):          1.73147 eV
     O         -1.97982          4.41720        -11.75409
     H         -2.93354          6.00323        -11.63579
     H         -2.17447          4.70039        -12.84048
3
Energy (cycle   61):          1.70300 eV
     O         -1.97806          4.41773        -11.75450
     H         -2.91068          5.98193        -11.62068
     H         -2.16908          4.69493        -12.88123
3
Energy (cycle   62):          1.73524 eV
     O         -1.97645          4.41851        -11.75509
     H         -2.88535          5.95642        -11.60694
     H         -2.16383          4.68983        -12.91776
3
Energy (cycle   63):          1.75896 eV
     O         -1.97504          4.41960        -11.75612
     H         -2.85741          5.92647        -11.59463
     H         -2.15799          4.68408        -12.94581
3
Energy (cycle   64):          1.72283 eV
     O         -1.97386          4.42106        -11.75774
     H         -2.82669          5.89173        -11.58382
     H         -2.15124          4.67720        -12.96312
3
Energy (cycle   65):          1.59939 eV
     O         -1.97293          4.42294        -11.75999
     H         -2.79295          5.85174        -11.57462
     H         -2.14348          4.66904        -12.96878
3
Energy (cycle   66):          1.37957 eV
     O         -1.97228          4.42526        -11.76286
     H         -2.75587          5.80590        -11.56720
     H         -2.13477          4.65972        -12.96280
3
Energy (cycle   67):          1.07106 eV
     O         -1.97190          4.42805        -11.76627
     H         -2.71506          5.75344        -11.56177
     H         -2.12530          4.64953        -12.94616
3
Energy (cycle   68):          0.70191 eV
     O         -1.97182          4.43134        -11.77008
     H         -2.67003          5.69339        -11.55861
     H         -2.11545          4.63900        -12.92111
3
Energy (cycle   69):          0.32024 eV
     O         -1.97203          4.43514        -11.77398
     H         -2.62024          5.62471        -11.55811
     H         -2.10579          4.62902        -12.89180
3
Energy (cycle   70):         -0.01910 eV
     O         -1.97249          4.43942        -11.77755
     H         -2.56532          5.54654        -11.56065
     H         -2.09719          4.62084        -12.86475
3
Energy (cycle   71):         -0.20271 eV
     O         -1.97312          4.44405        -11.78027
     H         -2.50577          5.45966        -11.56638
     H         -2.09057          4.61589        -12.84798
3
Energy (cycle   72):          0.28170 eV
     O         -1.97363          4.44852        -11.78185
     H         -2.44540          5.37114        -11.57415
     H         -2.08658          4.61514        -12.84729
3
Energy (cycle   73):          1.89362 eV
     O         -1.97323          4.45125        -11.78270
     H         -2.39717          5.30625        -11.57853
     H         -2.08504          4.61839        -12.86155
3
Energy (cycle   74):          1.78413 eV
     O         -1.97058          4.44949        -11.78395
     H         -2.38286          5.30968        -11.56868
     H         -2.08515          4.62453        -12.88374
3
Energy (cycle   75):          0.05351 eV
     O         -1.96581          4.44332        -11.78596
     H         -2.40122          5.38114        -11.54385
     H         -2.08634          4.63272        -12.90881
3
Energy (cycle   76):         -0.37667 eV
     O         -1.96030          4.43557        -11.78820
     H         -2.43051          5.47603        -11.51474
     H         -2.08828          4.64248        -12.93441
3
Energy (cycle   77):          0.00339 eV
     O         -1.95483          4.42789        -11.79048
     H         -2.45893          5.56894        -11.48765
     H         -2.09056          4.65315        -12.95752
3
Energy (cycle   78):          0.51161 eV
     O         -1.94962          4.42077        -11.79288
     H         -2.48335          5.65267        -11.46426
     H         -2.09274          4.66395        -12.97491
3
Energy (cycle   79):          0.93068 eV
     O         -1.94470          4.41431        -11.79556
     H         -2.50355          5.72660        -11.44458
     H         -2.09444          4.67423        -12.98415
3
Energy (cycle   80):          1.22299 eV
     O         -1.94006          4.40847        -11.79863
     H         -2.52005          5.79177        -11.42824
     H         -2.09541          4.68352        -12.98389
3
Energy (cycle   81):          1.40240 eV
     O         -1.93566          4.40317        -11.80214
     H         -2.53341          5.84939        -11.41482
     H         -2.09555          4.69158        -12.97383
3
Energy (cycle   82):          1.50238 eV
     O         -1.93149          4.39836        -11.80605
     H         -2.54412          5.90052        -11.40399
     H         -2.09490          4.69846        -12.95467
3
Energy (cycle   83):          1.57075 eV
     O         -1.92750          4.39396        -11.81027
     H         -2.55253          5.94595        -11.39550
     H         -2.09367          4.70454        -12.92840
3
Energy (cycle   84):          1.66075 eV
     O         -1.92364          4.38987        -11.81457
     H         -2.55891          5.98627        -11.38916
     H         -2.09237          4.71074        -12.89863
3
Energy (cycle   85):          1.79750 eV
     O         -1.91985          4.38597        -11.81863
     H         -2.56347          6.02195        -11.38484
     H         -2.09183          4.71864        -12.87069
3
Energy (cycle   86):          1.93393 eV
     O         -1.91605          4.38211        -11.82205
     H         -2.56636          6.05330        -11.38244
     H         -2.09309          4.73029        -12.85081
3
Energy (cycle   87):          1.98329 eV
     O         -1.91217          4.37815        -11.82457
     H         -2.56769          6.08058        -11.38189
     H         -2.09703          4.74748        -12.84355
3
Energy (cycle   88):          1.94061 eV
     O         -1.90821          4.37406        -11.82617
     H         -2.56756          6.10400        -11.38314
     H         -2.10381          4.77063        -12.84908
3
Energy (cycle   89):          1.89440 eV
     O         -1.90421          4.36991        -11.82713
     H         -2.56606          6.12371        -11.38616
     H         -2.11273          4.79841        -12.86298
3
Energy (cycle   90):          1.90673 eV
     O         -1.90022          4.36584        -11.82784
     H         -2.56323          6.13984        -11.39092
     H         -2.12265          4.82852        -12.87906
3
Energy (cycle   91):          1.96640 eV
     O         -1.89632          4.36199        -11.82864
     H         -2.55914          6.15247        -11.39743
     H         -2.13246          4.85871        -12.89194
3
Energy (cycle   92):          2.03031 eV
     O         -1.89256          4.35845        -11.82977
     H         -2.55382          6.16167        -11.40571
     H         -2.14135          4.88729        -12.89796
3
Energy (cycle   93):          2.06142 eV
     O         -1.88896          4.35530        -11.83134
     H         -2.54729          6.16744        -11.41580
     H         -2.14881          4.91314        -12.89506
3
Energy (cycle   94):          2.04009 eV
     O         -1.88554          4.35258        -11.83342
     H         -2.53956          6.16978        -11.42775
     H         -2.15455          4.93567        -12.88231
3
Energy (cycle   95):          1.96386 eV
     O         -1.88232          4.35029        -11.83599
     H         -2.53064          6.16864        -11.44166
     H         -2.15851          4.95474        -12.85969
3
Energy (cycle   96):          1.84684 eV
     O         -1.87927          4.34843        -11.83901
     H         -2.52051          6.16393        -11.45762
     H         -2.16085          4.97071        -12.82795
3
Energy (cycle   97):          1.71918 eV
     O         -1.87637          4.34693        -11.84236
     H         -2.50915          6.15551        -11.47577
     H         -2.16202          4.98461        -12.78880
3
Energy (cycle   98):          1.61737 eV
     O         -1.87357          4.34568        -11.84584
     H         -2.49652          6.14321        -11.49626
     H         -2.16290          4.99841        -12.74512
3
Energy (cycle   99):          1.55223 eV
     O         -1.87079          4.34450        -11.84921
     H         -2.48256          6.12676        -11.51928
     H         -2.16483          5.01525        -12.70088
3
Energy (cycle  100):          1.47113 eV
     O         -1.86792          4.34316        -11.85216
     H         -2.46721          6.10588        -11.54503
     H         -2.16948          5.03905        -12.66038
3
Energy (cycle  101):          1.28979 eV
     O         -1.86490          4.34148        -11.85452
     H         -2.45037          6.08018        -11.57380
     H         -2.17817          5.07307        -12.62625
3
Energy (cycle  102):          0.99602 eV
     O         -1.86170          4.33944        -11.85632
     H         -2.43194          6.04922        -11.60592
     H         -2.19112          5.11806        -12.59774
3
Energy (cycle  103):          0.65728 eV
     O         -1.85842          4.33721        -11.85776
     H         -2.41183          6.01249        -11.64181
     H         -2.20721          5.17174        -12.57108
3
Energy (cycle  104):          0.32122 eV
     O         -1.85515          4.33509        -11.85912
     H         -2.38993          5.96942        -11.68194
     H         -2.22468          5.23018        -12.54162
3
Energy (cycle  105):         -0.01476 eV
     O         -1.85203          4.33334        -11.86058
     H         -2.36617          5.91946        -11.72672
     H         -2.24184          5.28955        -12.50574
3
Energy (cycle  106):         -0.34647 eV
     O         -1.84913          4.33219        -11.86227
     H         -2.34048          5.86221        -11.77620
     H         -2.25735          5.34670        -12.46159
3
Energy (cycle  107):         -0.59478 eV
     O         -1.84652          4.33181        -11.86423
     H         -2.31288          5.79769        -11.82946
     H         -2.27020          5.39884        -12.40940
3
Energy (cycle  108):         -0.57591 eV
     O         -1.84425          4.33235        -11.86646
     H         -2.28338          5.72687        -11.88352
     H         -2.27965          5.44275        -12.35211
3
Energy (cycle  109):         -0.12105 eV
     O         -1.84234          4.33393        -11.86894
     H         -2.25158          5.65208        -11.93179
     H         -2.28551          5.47415        -12.29655
3
Energy (cycle  110):          0.48245 eV
     O         -1.84083          4.33663        -11.87166
     H         -2.21550          5.57643        -11.96318
     H         -2.28943          5.48861        -12.25411
3
Energy (cycle  111):          0.33199 eV
     O         -1.83969          4.34042        -11.87460
     H         -2.16960          5.50018        -11.96603
     H         -2.29719          5.48631        -12.23678
3
Energy (cycle  112):         -0.41217 eV
     O         -1.83883          4.34499        -11.87771
     H         -2.10884          5.42057        -11.93987
     H         -2.31543          5.47502        -12.24569
3
Energy (cycle  113):         -0.08527 eV
     O         -1.83796          4.34925        -11.88092
     H         -2.03908          5.34958        -11.89668
     H         -2.34274          5.46000        -12.27007
3
Energy (cycle  114):          0.53576 eV
     O         -1.83666          4.35080        -11.88424
     H         -1.97335          5.32655        -11.84685
     H         -2.37292          5.44020        -12.29945
3
Energy (cycle  115):         -0.72855 eV
     O         -1.83492          4.34805        -11.88790
     H         -1.91652          5.37830        -11.79227
     H         -2.40125          5.41376        -12.32797
3
Energy (cycle  116):         -1.49986 eV
     O         -1.83319          4.34311        -11.89198
     H         -1.86387          5.47137        -11.73487
     H         -2.42519          5.38073        -12.35280
3
Energy (cycle  117):         -1.20358 eV
     O         -1.83167          4.33820        -11.89628
     H         -1.81390          5.56971        -11.67946
     H         -2.44312          5.34199        -12.37212
3
Energy (cycle  118):         -0.63445 eV
     O         -1.83038          4.33414        -11.90068
     H         -1.76731          5.65959        -11.62894
     H         -2.45392          5.29812        -12.38485
3
Energy (cycle  119):         -0.14859 eV
     O         -1.82932          4.33105        -11.90517
     H         -1.72454          5.73864        -11.58401
     H         -2.45729          5.24979        -12.39069
3
Energy (cycle  120):          0.23842 eV
     O         -1.82844          4.32877        -11.90971
     H         -1.68554          5.80771        -11.54436
     H         -2.45411          5.19863        -12.39044
3
Energy (cycle  121):          0.62666 eV
     O         -1.82759          4.32698        -11.91420
     H         -1.64998          5.86815        -11.50942
     H         -2.44701          5.14821        -12.38623
3
Energy (cycle  122):          1.07631 eV
     O         -1.82648          4.32524        -11.91844
     H         -1.61752          5.92109        -11.47859
     H         -2.44081          5.10453        -12.38186
3
Energy (cycle  123):          1.46185 eV
     O         -1.82475          4.32303        -11.92216
     H         -1.58783          5.96745        -11.45138
     H         -2.44178          5.07490        -12.38216
3
Energy (cycle  124):          1.59070 eV
     O         -1.82213          4.32001        -11.92518
     H         -1.56063          6.00795        -11.42738
     H         -2.45444          5.06393        -12.39050
3
Energy (cycle  125):          1.54735 eV
     O         -1.81868          4.31628        -11.92754
     H         -1.53573          6.04323        -11.40628
     H         -2.47791          5.06962        -12.40619
3
Energy (cycle  126):          1.56278 eV
     O         -1.81476          4.31222        -11.92953
     H         -1.51295          6.07380        -11.38784
     H         -2.50679          5.08506        -12.42525
3
Energy (cycle  127):          1.70059 eV
     O         -1.81074          4.30827        -11.93142
     H         -1.49220          6.10009        -11.37184
     H         -2.53512          5.10315        -12.44342
3
Energy (cycle  128):          1.89205 eV
     O         -1.80690          4.30471        -11.93340
     H         -1.47335          6.12243        -11.35814
     H         -2.55867          5.11898        -12.45775
3
Energy (cycle  129):          2.06118 eV
     O         -1.80341          4.30169        -11.93559
     H         -1.45632          6.14109        -11.34661
     H         -2.57503          5.12981        -12.46662
3
Energy (cycle  130):          2.16461 eV
     O         -1.80033          4.29930        -11.93805
     H         -1.44106          6.15627        -11.33713
     H         -2.58300          5.13426        -12.46930
3
Energy (cycle  131):          2.18666 eV
     O         -1.79769          4.29755        -11.94078
     H         -1.42751          6.16812        -11.32964
     H         -2.58213          5.13180        -12.46557
3
Energy (cycle  132):          2.13161 eV
     O         -1.79551          4.29644        -11.94379
     H         -1.41562          6.17676        -11.32406
     H         -2.57248          5.12247        -12.45558
3
Energy (cycle  133):          2.02535 eV
     O         -1.79374          4.29592        -11.94704
     H         -1.40538          6.18224        -11.32036
     H         -2.55469          5.10692        -12.43983
3
Energy (cycle  134):          1.92448 eV
     O         -1.79228          4.29588        -11.95046
     H         -1.39676          6.18463        -11.31850
     H         -2.53030          5.08679        -12.41941
3
Energy (cycle  135):          1.91372 eV
     O         -1.79094          4.29612        -11.95395
     H         -1.38978          6.18390        -11.31848
     H         -2.50232          5.06531        -12.39629
3
Energy (cycle  136):          2.04075 eV
     O         -1.78941          4.29630        -11.95729
     H         -1.38443          6.18004        -11.32029
     H         -2.47580          5.04800        -12.37366
3
Energy (cycle  137):          2.18664 eV
     O         -1.78727          4.29596        -11.96023
     H         -1.38075          6.17299        -11.32395
     H         -2.45728          5.04214        -12.35543
3
Energy (cycle  138):          2.13353 eV