3
Energy (cycle    0):          2.22516 eV
     O         -2.19000          4.53600        -11.66700
     H         -2.60900          4.48400        -12.57400
     H         -2.53400          5.43500        -11.35600
3
Energy (cycle    1):          0.90305 eV
     O         -2.18672          4.53393        -11.66624
     H         -2.64779          4.49623        -12.60570
     H         -2.54721          5.45565        -11.33638
3
Energy (cycle    2):         -0.18876 eV
     O         -2.18186          4.53007        -11.66437
     H         -2.70019          4.50870        -12.66365
     H         -2.57206          5.50435        -11.30807
3
Energy (cycle    3):         -0.23339 eV
     O         -2.17657          4.52562        -11.66236
     H         -2.75520          4.52209        -12.72573
     H         -2.60092          5.56162        -11.27788
3
Energy (cycle    4):          0.26266 eV
     O         -2.17159          4.52138        -11.66063
     H         -2.80662          4.53624        -12.78080
     H         -2.62854          5.61477        -11.25038
3
Energy (cycle    5):          0.84313 eV
     O         -2.16725          4.51775        -11.65929
     H         -2.85173          4.55073        -12.82475
     H         -2.65234          5.65797        -11.22767
3
Energy (cycle    6):          1.32251 eV
     O         -2.16366          4.51486        -11.65835
     H         -2.88978          4.56524        -12.85683
     H         -2.67139          5.68935        -11.21041
3
Energy (cycle    7):          1.65297 eV
     O         -2.16083          4.51275        -11.65780
     H         -2.92066          4.57952        -12.87739
     H         -2.68542          5.70858        -11.19869
3
Energy (cycle    8):          1.83450 eV
     O         -2.15874          4.51140        -11.65758
     H         -2.94467          4.59344        -12.88720
     H         -2.69447          5.71598        -11.19235
3
Energy (cycle    9):          1.87569 eV
     O         -2.15738          4.51081        -11.65766
     H         -2.96208          4.60689        -12.88698
     H         -2.69863          5.71193        -11.19127
3
Energy (cycle   10):          1.78287 eV
     O         -2.15673          4.51095        -11.65801
     H         -2.97318          4.61982        -12.87733
     H         -2.69800          5.69676        -11.19531
3
Energy (cycle   11):          1.55893 eV
     O         -2.15675          4.51181        -11.65861
     H         -2.97815          4.63219        -12.85873
     H         -2.69266          5.67076        -11.20441
3
Energy (cycle   12):          1.20936 eV
     O         -2.15744          4.51337        -11.65944
     H         -2.97714          4.64398        -12.83151
     H         -2.68274          5.63427        -11.21850
3
Energy (cycle   13):          0.76154 eV
     O         -2.15876          4.51557        -11.66049
     H         -2.97027          4.65517        -12.79598
     H         -2.66860          5.58813        -11.23733
3
Energy (cycle   14):          0.29990 eV
     O         -2.16065          4.51829        -11.66179
     H         -2.95766          4.66577        -12.75245
     H         -2.65121          5.53439        -11.26021
3
Energy (cycle   15):          0.00332 eV
     O         -2.16294          4.52121        -11.66342
     H         -2.93959          4.67577        -12.70148
     H         -2.63296          5.47806        -11.28530
3
Energy (cycle   16):          0.03676 eV
     O         -2.16528          4.52370        -11.66556
     H         -2.91661          4.68530        -12.64390
     H         -2.61871          5.42887        -11.30892
3
Energy (cycle   17):          0.18138 eV
     O         -2.16715          4.52487        -11.66843
     H         -2.89005          4.69460        -12.58162
     H         -2.61573          5.40109        -11.32561
3
Energy (cycle   18):          0.06248 eV
     O         -2.16800          4.52406        -11.67200
     H         -2.86315          4.70447        -12.51875
     H         -2.62914          5.40410        -11.33188
3
Energy (cycle   19):          0.02625 eV
     O         -2.16754          4.52154        -11.67552
     H         -2.84343          4.71690        -12.46442
     H         -2.65602          5.43161        -11.33033
3
Energy (cycle   20):          0.10367 eV
     O         -2.16556          4.51804        -11.67782
     H         -2.84231          4.73548        -12.43152
     H         -2.68865          5.46858        -11.32680
3
Energy (cycle   21):         -0.19924 eV
     O         -2.16202          4.51410        -11.67824
     H         -2.86619          4.76289        -12.42613
     H         -2.72091          5.50369        -11.32549
3
Energy (cycle   22):         -0.55362 eV
     O         -2.15757          4.51016        -11.67724
     H         -2.90789          4.79744        -12.43919
     H         -2.74984          5.53172        -11.32822
3
Energy (cycle   23):         -0.61140 eV
     O         -2.15310          4.50662        -11.67567
     H         -2.95457          4.83474        -12.45686
     H         -2.77418          5.55064        -11.33553
3
Energy (cycle   24):         -0.49373 eV
     O         -2.14919          4.50373        -11.67408
     H         -2.99737          4.87132        -12.47015
     H         -2.79348          5.55986        -11.34752
3
Energy (cycle   25):         -0.38446 eV
     O         -2.14611          4.50163        -11.67272
     H         -3.03208          4.90527        -12.47521
     H         -2.80763          5.55937        -11.36404
3
Energy (cycle   26):         -0.37413 eV
     O         -2.14393          4.50031        -11.67166
     H         -3.05746          4.93594        -12.47105
     H         -2.81682          5.54957        -11.38491
3
Energy (cycle   27):         -0.48459 eV
     O         -2.14263          4.49975        -11.67093
     H         -3.07352          4.96315        -12.45786
     H         -2.82144          5.53120        -11.40981
3
Energy (cycle   28):         -0.69981 eV
     O         -2.14212          4.49987        -11.67048
     H         -3.08084          4.98708        -12.43631
     H         -2.82218          5.50539        -11.43838
3
Energy (cycle   29):         -0.97622 eV
     O         -2.14229          4.50054        -11.67032
     H         -3.08020          5.00791        -12.40730
     H         -2.82018          5.47404        -11.47001
3
Energy (cycle   30):         -1.25024 eV
     O         -2.14295          4.50155        -11.67042
     H         -3.07252          5.02588        -12.37186
     H         -2.81728          5.43999        -11.50387
3
Energy (cycle   31):         -1.46094 eV
     O         -2.14388          4.50263        -11.67077
     H         -3.05892          5.04121        -12.33135
     H         -2.81617          5.40743        -11.53881
3
Energy (cycle   32):         -1.59465 eV
     O         -2.14477          4.50347        -11.67134
     H         -3.04084          5.05416        -12.28751
     H         -2.82011          5.38124        -11.57354
3
Energy (cycle   33):         -1.68448 eV
     O         -2.14533          4.50376        -11.67207
     H         -3.02037          5.06516        -12.24283
     H         -2.83169          5.36556        -11.60671
3
Energy (cycle   34):         -1.73354 eV
     O         -2.14537          4.50340        -11.67282
     H         -3.00036          5.07492        -12.20050
     H         -2.85106          5.36156        -11.63707
3
Energy (cycle   35):         -1.70477 eV
     O         -2.14484          4.50245        -11.67346
     H         -2.98430          5.08437        -12.16439
     H         -2.87548          5.36724        -11.66310
3
Energy (cycle   36):         -1.61819 eV
     O         -2.14381          4.50107        -11.67386
     H         -2.97527          5.09427        -12.13794
     H         -2.90096          5.37920        -11.68317
3
Energy (cycle   37):         -1.54840 eV
     O         -2.14239          4.49946        -11.67399
     H         -2.97459          5.10455        -12.12312
     H         -2.92409          5.39454        -11.69593
3
Energy (cycle   38):         -1.53364 eV
     O         -2.14079          4.49780        -11.67389
     H         -2.98126          5.11421        -12.11971
     H         -2.94286          5.41120        -11.70100
3
Energy (cycle   39):         -1.55816 eV
     O         -2.13923          4.49629        -11.67364
     H         -2.99266          5.12176        -12.12576
     H         -2.95627          5.42757        -11.69890
3
Energy (cycle   40):         -1.59300 eV
     O         -2.13791          4.49509        -11.67334
     H         -3.00587          5.12608        -12.13844
     H         -2.96405          5.44225        -11.69094
3
Energy (cycle   41):         -1.62175 eV
     O         -2.13697          4.49432        -11.67307
     H         -3.01843          5.12671        -12.15481
     H         -2.96626          5.45391        -11.67886
3
Energy (cycle   42):         -1.64337 eV
     O         -2.13652          4.49402        -11.67288
     H         -3.02867          5.12384        -12.17226
     H         -2.96329          5.46151        -11.66447
3
Energy (cycle   43):         -1.66578 eV
     O         -2.13656          4.49421        -11.67279
     H         -3.03564          5.11803        -12.18872
     H         -2.95569          5.46434        -11.64939
3
Energy (cycle   44):         -1.69825 eV
     O         -2.13708          4.49486        -11.67281
     H         -3.03897          5.10997        -12.20281
     H         -2.94410          5.46213        -11.63491
3
Energy (cycle   45):         -1.74458 eV
     O         -2.13802          4.49590        -11.67294
     H         -3.03872          5.10042        -12.21370
     H         -2.92933          5.45505        -11.62196
3
Energy (cycle   46):         -1.79935 eV
     O         -2.13931          4.49727        -11.67316
     H         -3.03533          5.09005        -12.22115
     H         -2.91231          5.44374        -11.61105
3
Energy (cycle   47):         -1.84744 eV
     O         -2.14082          4.49883        -11.67344
     H         -3.02949          5.07957        -12.22532
     H         -2.89422          5.42938        -11.60243
3
Energy (cycle   48):         -1.86966 eV
     O         -2.14239          4.50045        -11.67375
     H         -3.02214          5.06960        -12.22673
     H         -2.87652          5.41369        -11.59604
3
Energy (cycle   49):         -1.85478 eV
     O         -2.14386          4.50193        -11.67407
     H         -3.01434          5.06080        -12.22612
     H         -2.86100          5.39898        -11.59162
3
Energy (cycle   50):         -1.81326 eV
     O         -2.14504          4.50309        -11.67436
     H         -3.00721          5.05375        -12.22433
     H         -2.84953          5.38772        -11.58877
3
Energy (cycle   51):         -1.77648 eV
     O         -2.14575          4.50375        -11.67461
     H         -3.00172          5.04894        -12.22217
     H         -2.84363          5.38197        -11.58708
3
Energy (cycle   52):         -1.77186 eV
     O         -2.14594          4.50385        -11.67478
     H         -2.99860          5.04668        -12.22026
     H         -2.84379          5.38258        -11.58626
3
Energy (cycle   53):         -1.79886 eV
     O         -2.14562          4.50344        -11.67487
     H         -2.99816          5.04707        -12.21894
     H         -2.84929          5.38875        -11.58621
3
Energy (cycle   54):         -1.83526 eV
     O         -2.14491          4.50265        -11.67486
     H         -3.00022          5.04989        -12.21820
     H         -2.85845          5.39850        -11.58700
3
Energy (cycle   55):         -1.86079 eV
     O         -2.14398          4.50166        -11.67478
     H         -3.00417          5.05469        -12.21772
     H         -2.86926          5.40940        -11.58875
3
Energy (cycle   56):         -1.86949 eV
     O         -2.14300          4.50065        -11.67465
     H         -3.00914          5.06083        -12.21707
     H         -2.87999          5.41937        -11.59154
3
Energy (cycle   57):         -1.86638 eV
     O         -2.14208          4.49974        -11.67449
     H         -3.01422          5.06764        -12.21578
     H         -2.88936          5.42695        -11.59537
3
Energy (cycle   58):         -1.85990 eV
     O         -2.14135          4.49903        -11.67433
     H         -3.01866          5.07449        -12.21353
     H         -2.89663          5.43138        -11.60011
3
Energy (cycle   59):         -1.85661 eV
     O         -2.14084          4.49856        -11.67420
     H         -3.02193          5.08087        -12.21022
     H         -2.90143          5.43241        -11.60552
3
Energy (cycle   60):         -1.85913 eV
     O         -2.14058          4.49835        -11.67410
     H         -3.02378          5.08639        -12.20594
     H         -2.90372          5.43028        -11.61130
3
Energy (cycle   61):         -1.86629 eV
     O         -2.14055          4.49837        -11.67405
     H         -3.02420          5.09082        -12.20100
     H         -2.90372          5.42550        -11.61709
3
Energy (cycle   62):         -1.87460 eV
     O         -2.14072          4.49859        -11.67404
     H         -3.02340          5.09405        -12.19581
     H         -2.90180          5.41883        -11.62247
3
Energy (cycle   63):         -1.88019 eV
     O         -2.14104          4.49894        -11.67406
     H         -3.02172          5.09604        -12.19089
     H         -2.89849          5.41121        -11.62707
3
Energy (cycle   64):         -1.88078 eV
     O         -2.14143          4.49936        -11.67410
     H         -3.01959          5.09691        -12.18672
     H         -2.89442          5.40364        -11.63054
3
Energy (cycle   65):         -1.87692 eV
     O         -2.14182          4.49978        -11.67416
     H         -3.01743          5.09678        -12.18375
     H         -2.89027          5.39711        -11.63262
3
Energy (cycle   66):         -1.87175 eV
     O         -2.14216          4.50013        -11.67422
     H         -3.01562          5.09587        -12.18226
     H         -2.88669          5.39245        -11.63320
3
Energy (cycle   67):         -1.86915 eV
     O         -2.14240          4.50037        -11.67427
     H         -3.01443          5.09438        -12.18235
     H         -2.88414          5.39020        -11.63229
3
Energy (cycle   68):         -1.87131 eV
     O         -2.14251          4.50047        -11.67431
     H         -3.01397          5.09252        -12.18395
     H         -2.88287          5.39050        -11.63006
3
Energy (cycle   69):         -1.87737 eV
     O         -2.14250          4.50043        -11.67434
     H         -3.01420          5.09046        -12.18678
     H         -2.88285          5.39310        -11.62678
3
Energy (cycle   70):         -1.88433 eV
     O         -2.14239          4.50030        -11.67435
     H         -3.01496          5.08833        -12.19046
     H         -2.88380          5.39737        -11.62283
3
Energy (cycle   71):         -1.88914 eV
     O         -2.14223          4.50011        -11.67436
     H         -3.01600          5.08621        -12.19453
     H         -2.88530          5.40252        -11.61858
3
Energy (cycle   72):         -1.89043 eV
     O         -2.14206          4.49991        -11.67437
     H         -3.01707          5.08417        -12.19854
     H         -2.88692          5.40772        -11.61442
3
Energy (cycle   73):         -1.88878 eV
     O         -2.14192          4.49974        -11.67439
     H         -3.01793          5.08226        -12.20209
     H         -2.88824          5.41226        -11.61068
3
Energy (cycle   74):         -1.88594 eV
     O         -2.14184          4.49964        -11.67440
     H         -3.01841          5.08051        -12.20491
     H         -2.88899          5.41562        -11.60759
3
Energy (cycle   75):         -1.88369 eV
     O         -2.14184          4.49962        -11.67443
     H         -3.01842          5.07897        -12.20682
     H         -2.88903          5.41750        -11.60530
3
Energy (cycle   76):         -1.88303 eV
     O         -2.14191          4.49968        -11.67445
     H         -3.01799          5.07768        -12.20777
     H         -2.88835          5.41783        -11.60390
3
Energy (cycle   77):         -1.88397 eV
     O         -2.14204          4.49981        -11.67449
     H         -3.01719          5.07670        -12.20782
     H         -2.88703          5.41675        -11.60334
3
Energy (cycle   78):         -1.88577 eV
     O         -2.14222          4.49999        -11.67452
     H         -3.01617          5.07608        -12.20712
     H         -2.88529          5.41455        -11.60357
3
Energy (cycle   79):         -1.88744 eV
     O         -2.14240          4.50018        -11.67454
     H         -3.01512          5.07587        -12.20587
     H         -2.88339          5.41164        -11.60443
3
Energy (cycle   80):         -1.88832 eV
     O         -2.14257          4.50037        -11.67456
     H         -3.01421          5.07608        -12.20430
     H         -2.88161          5.40849        -11.60576
3
Energy (cycle   81):         -1.88833 eV
     O         -2.14270          4.50051        -11.67456
     H         -3.01360          5.07672        -12.20264
     H         -2.88023          5.40557        -11.60739
3
Energy (cycle   82):         -1.88793 eV
     O         -2.14276          4.50059        -11.67455
     H         -3.01338          5.07775        -12.20105
     H         -2.87947          5.40325        -11.60915
3
Energy (cycle   83):         -1.88774 eV
     O         -2.14275          4.50060        -11.67452
     H         -3.01359          5.07909        -12.19969
     H         -2.87945          5.40182        -11.61089
3
Energy (cycle   84):         -1.88809 eV
     O         -2.14267          4.50053        -11.67449
     H         -3.01417          5.08063        -12.19861
     H         -2.88019          5.40136        -11.61250
3
Energy (cycle   85):         -1.88889 eV
     O         -2.14252          4.50040        -11.67445
     H         -3.01504          5.08225        -12.19783
     H         -2.88158          5.40182        -11.61389
3
Energy (cycle   86):         -1.88972 eV
     O         -2.14234          4.50023        -11.67441
     H         -3.01604          5.08383        -12.19732
     H         -2.88341          5.40299        -11.61505
3
Energy (cycle   87):         -1.89019 eV
     O         -2.14215          4.50004        -11.67437
     H         -3.01705          5.08523        -12.19701
     H         -2.88544          5.40461        -11.61594
3
Energy (cycle   88):         -1.89014 eV
     O         -2.14198          4.49986        -11.67434
     H         -3.01790          5.08635        -12.19684
     H         -2.88741          5.40636        -11.61658
3
Energy (cycle   89):         -1.88969 eV
     O         -2.14183          4.49971        -11.67433
     H         -3.01851          5.08714        -12.19672
     H         -2.88909          5.40795        -11.61700
3
Energy (cycle   90):         -1.88917 eV
     O         -2.14174          4.49960        -11.67432
     H         -3.01879          5.08756        -12.19661
     H         -2.89031          5.40917        -11.61722
3
Energy (cycle   91):         -1.88887 eV
     O         -2.14170          4.49956        -11.67432
     H         -3.01875          5.08760        -12.19649
     H         -2.89097          5.40989        -11.61727
3
Energy (cycle   92):         -1.88891 eV
     O         -2.14171          4.49956        -11.67434
     H         -3.01840          5.08731        -12.19635
     H         -2.89105          5.41005        -11.61718
3
Energy (cycle   93):         -1.88926 eV
     O         -2.14178          4.49962        -11.67436
     H         -3.01783          5.08675        -12.19623
     H         -2.89060          5.40970        -11.61696
3
Energy (cycle   94):         -1.88974 eV
     O         -2.14188          4.49972        -11.67439
     H         -3.01714          5.08601        -12.19615
     H         -2.88970          5.40894        -11.61662
3
Energy (cycle   95):         -1.89014 eV
     O         -2.14200          4.49983        -11.67441
     H         -3.01642          5.08517        -12.19617
     H         -2.88852          5.40793        -11.61618
3
Energy (cycle   96):         -1.89034 eV
     O         -2.14212          4.49996        -11.67443
     H         -3.01580          5.08431        -12.19633
     H         -2.88720          5.40684        -11.61565
3
Energy (cycle   97):         -1.89034 eV
     O         -2.14223          4.50007        -11.67445
     H         -3.01534          5.08352        -12.19665
     H         -2.88592          5.40584        -11.61505
3
Energy (cycle   98):         -1.89023 eV
     O         -2.14232          4.50016        -11.67446
     H         -3.01510          5.08285        -12.19714
     H         -2.88480          5.40508        -11.61440
3
Energy (cycle   99):         -1.89012 eV
     O         -2.14237          4.50022        -11.67447
     H         -3.01508          5.08233        -12.19776
     H         -2.88396          5.40467        -11.61372
3
Energy (cycle  100):         -1.89009 eV
     O         -2.14239          4.50024        -11.67446
     H         -3.01528          5.08197        -12.19848
     H         -2.88346          5.40463        -11.61305
3
Energy (cycle  101):         -1.89015 eV
     O         -2.14238          4.50024        -11.67446
     H         -3.01562          5.08176        -12.19922
     H         -2.88329          5.40494        -11.61243
3
Energy (cycle  102):         -1.89024 eV
     O         -2.14234          4.50020        -11.67445
     H         -3.01604          5.08168        -12.19992
     H         -2.88343          5.40553        -11.61189
3
Energy (cycle  103):         -1.89030 eV
     O         -2.14229          4.50015        -11.67444
     H         -3.01646          5.08170        -12.20049
     H         -2.88380          5.40629        -11.61148
3
Energy (cycle  104):         -1.89031 eV
     O         -2.14224          4.50010        -11.67443
     H         -3.01682          5.08179        -12.20089
     H         -2.88431          5.40709        -11.61121
3
Energy (cycle  105):         -1.89027 eV
     O         -2.14219          4.50005        -11.67442
     H         -3.01706          5.08191        -12.20108
     H         -2.88487          5.40781        -11.61112
3
Energy (cycle  106):         -1.89023 eV
     O         -2.14215          4.50000        -11.67442
     H         -3.01715          5.08205        -12.20103
     H         -2.88539          5.40836        -11.61119
3
Energy (cycle  107):         -1.89023 eV
     O         -2.14213          4.49997        -11.67442
     H         -3.01709          5.08220        -12.20077
     H         -2.88582          5.40866        -11.61142
3
Energy (cycle  108):         -1.89028 eV
     O         -2.14212          4.49996        -11.67443
     H         -3.01691          5.08235        -12.20032
     H         -2.88611          5.40870        -11.61179
3
Energy (cycle  109):         -1.89037 eV
     O         -2.14213          4.49996        -11.67443
     H         -3.01664          5.08251        -12.19975
     H         -2.88627          5.40850        -11.61226
3
Energy (cycle  110):         -1.89045 eV
     O         -2.14214          4.49998        -11.67444
     H         -3.01634          5.08267        -12.19912
     H         -2.88629          5.40810        -11.61278
3
Energy (cycle  111):         -1.89050 eV
     O         -2.14217          4.50000        -11.67445
     H         -3.01606          5.08285        -12.19849
     H         -2.88622          5.40758        -11.61333
3
Energy (cycle  112):         -1.89051 eV
     O         -2.14219          4.50002        -11.67445
     H         -3.01584          5.08306        -12.19793
     H         -2.88609          5.40701        -11.61384
3
Energy (cycle  113):         -1.89047 eV
     O         -2.14220          4.50004        -11.67445
     H         -3.01573          5.08328        -12.19749
     H         -2.88595          5.40648        -11.61429
3
Energy (cycle  114):         -1.89043 eV
     O         -2.14221          4.50005        -11.67444
     H         -3.01573          5.08352        -12.19720
     H         -2.88583          5.40606        -11.61464
3
Energy (cycle  115):         -1.89041 eV
     O         -2.14221          4.50006        -11.67444
     H         -3.01585          5.08376        -12.19707
     H         -2.88576          5.40579        -11.61488
3
Energy (cycle  116):         -1.89041 eV
     O         -2.14220          4.50005        -11.67443
     H         -3.01605          5.08398        -12.19709
     H         -2.88576          5.40569        -11.61500
3
Energy (cycle  117):         -1.89042 eV
     O         -2.14218          4.50003        -11.67442
     H         -3.01632          5.08416        -12.19724
     H         -2.88583          5.40576        -11.61500
3
Energy (cycle  118):         -1.89045 eV
     O         -2.14215          4.50001        -11.67441
     H         -3.01659          5.08429        -12.19748
     H         -2.88594          5.40597        -11.61491
3
Energy (cycle  119):         -1.89047 eV
     O         -2.14213          4.49999        -11.67440
     H         -3.01684          5.08434        -12.19777
     H         -2.88608          5.40627        -11.61473
3
Energy (cycle  120):         -1.89048 eV
     O         -2.14211          4.49997        -11.67440
     H         -3.01702          5.08431        -12.19806
     H         -2.88621          5.40661        -11.61450
3
Energy (cycle  121):         -1.89048 eV
     O         -2.14209          4.49996        -11.67440
     H         -3.01712          5.08420        -12.19833
     H         -2.88631          5.40694        -11.61424
3
Energy (cycle  122):         -1.89048 eV
     O         -2.14209          4.49995        -11.67440
     H         -3.01711          5.08402        -12.19855
     H         -2.88637          5.40721        -11.61398
3
Energy (cycle  123):         -1.89049 eV
     O         -2.14210          4.49995        -11.67441
     H         -3.01702          5.08378        -12.19870
     H         -2.88635          5.40740        -11.61373
3
Energy (cycle  124):         -1.89049 eV
     O         -2.14211          4.49996        -11.67442
     H         -3.01684          5.08351        -12.19879
     H         -2.88628          5.40749        -11.61351
3
Energy (cycle  125):         -1.89051 eV
     O         -2.14214          4.49998        -11.67442
     H         -3.01662          5.08322        -12.19882
     H         -2.88614          5.40748        -11.61332
3
Energy (cycle  126):         -1.89051 eV
     O         -2.14216          4.50001        -11.67443
     H         -3.01638          5.08296        -12.19881
     H         -2.88596          5.40739        -11.61318
3
Energy (cycle  127):         -1.89052 eV
     O         -2.14219          4.50003        -11.67444
     H         -3.01616          5.08273        -12.19877
     H         -2.88576          5.40723        -11.61309
3
Energy (cycle  128):         -1.89051 eV
     O         -2.14221          4.50005        -11.67445
     H         -3.01598          5.08257        -12.19873
     H         -2.88556          5.40705        -11.61303
3
Energy (cycle  129):         -1.89050 eV
     O         -2.14223          4.50007        -11.67445
     H         -3.01588          5.08247        -12.19870
     H         -2.88539          5.40688        -11.61301
3
Energy (cycle  130):         -1.89050 eV
     O         -2.14224          4.50008        -11.67445
     H         -3.01585          5.08245        -12.19869
     H         -2.88527          5.40673        -11.61301
3
Energy (cycle  131):         -1.89050 eV
     O         -2.14224          4.50008        -11.67445
     H         -3.01590          5.08250        -12.19870
     H         -2.88521          5.40664        -11.61304
3
Energy (cycle  132):         -1.89050 eV
     O         -2.14223          4.50008        -11.67445
     H         -3.01601          5.08261        -12.19872
     H         -2.88521          5.40660        -11.61309
3
Energy (cycle  133):         -1.89051 eV
     O         -2.14222          4.50007        -11.67444
     H         -3.01616          5.08276        -12.19876
     H         -2.88527          5.40661        -11.61315
3
Energy (cycle  134):         -1.89052 eV
     O         -2.14220          4.50005        -11.67443
     H         -3.01634          5.08293        -12.19879
     H         -2.88537          5.40668        -11.61323
3
Energy (cycle  135):         -1.89052 eV
     O         -2.14218          4.50004        -11.67443
     H         -3.01651          5.08311        -12.19881
     H         -2.88551          5.40677        -11.61331
3
Energy (cycle  136):         -1.89052 eV
     O         -2.14216          4.50002        -11.67442
     H         -3.01664          5.08327        -12.19880
     H         -2.88567          5.40687        -11.61340
3
Energy (cycle  137):         -1.89052 eV
     O         -2.14215          4.50000        -11.67442
     H         -3.01673          5.08341        -12.19876
     H         -2.88582          5.40697        -11.61350
3
Energy (cycle  138):         -1.89052 eV